18
# CELL(abcABC):   26.45886    26.45886    26.45886    90.00000    90.00000    90.00000  Step:          20  Bead:       0 positions{angstrom}  cell{angstrom}
       O  2.54817e+00 -5.56027e-01 -2.44124e-01
       H  3.10125e+00 -5.78022e-01 -1.04289e+00
       H  2.24397e+00  3.80833e-01 -3.31788e-02
       O  1.76007e+00  1.93615e+00  2.22475e-01
       H  2.05360e+00  2.41646e+00  1.01466e+00
       H  7.97075e-01  2.13776e+00  6.51846e-03
       O -2.55250e+00  5.63544e-01  2.17974e-01
       H -3.12297e+00  5.81983e-01  1.00451e+00
       H -2.24355e+00 -3.72471e-01  1.03860e-02
       O -1.75549e+00 -1.92875e+00 -2.32038e-01
       H -2.04188e+00 -2.42174e+00 -1.01902e+00
       H -7.94627e-01 -2.12679e+00 -3.32381e-03
       O  7.91128e-01 -2.47583e+00  2.82411e-01
       H  1.05216e+00 -2.93921e+00  1.09578e+00
       H  1.44813e+00 -1.74968e+00  4.63091e-02
       O -7.91975e-01  2.49501e+00 -2.51320e-01
       H -1.06530e+00  3.00017e+00 -1.03522e+00
       H -1.44788e+00  1.76026e+00 -3.99685e-02
18
# CELL(abcABC):   26.45886    26.45886    26.45886    90.00000    90.00000    90.00000  Step:          20  Bead:       1 positions{angstrom}  cell{angstrom}
       O  2.55656e+00 -5.98387e-01 -2.61142e-01
       H  3.08081e+00 -6.41755e-01 -1.07842e+00
       H  2.26633e+00  3.45966e-01 -5.72306e-02
       O  1.80819e+00  1.89794e+00  1.88122e-01
       H  2.12387e+00  2.38410e+00  9.68332e-01
       H  8.33680e-01  2.09272e+00  8.81352e-03
       O -2.54999e+00  5.90025e-01  1.49070e-01
       H -3.17228e+00  6.46683e-01  8.94392e-01
       H -2.25133e+00 -3.58728e-01 -2.04531e-02
       O -1.78552e+00 -1.90493e+00 -2.27392e-01
       H -2.09825e+00 -2.43921e+00 -9.77335e-01
       H -8.20058e-01 -2.09780e+00 -6.99063e-03
       O  7.48577e-01 -2.43457e+00  3.04912e-01
       H  9.75228e-01 -2.81158e+00  1.17387e+00
       H  1.42663e+00 -1.73872e+00  3.35137e-02
       O -7.39656e-01  2.46453e+00 -1.71986e-01
       H -1.01842e+00  3.03974e+00 -9.05489e-01
       H -1.41073e+00  1.72576e+00 -1.51186e-02
18
# CELL(abcABC):   26.45886    26.45886    26.45886    90.00000    90.00000    90.00000  Step:          20  Bead:       2 positions{angstrom}  cell{angstrom}
       O  2.56441e+00 -6.40731e-01 -2.78934e-01
       H  3.05976e+00 -7.04766e-01 -1.11236e+00
       H  2.28876e+00  3.10806e-01 -8.13500e-02
       O  1.85442e+00  1.86042e+00  1.54096e-01
       H  2.19283e+00  2.35169e+00  9.21578e-01
       H  8.70722e-01  2.04838e+00  1.13942e-02
       O -2.54740e+00  6.16395e-01  8.36921e-02
       H -3.21774e+00  7.10214e-01  7.80742e-01
       H -2.26035e+00 -3.43538e-01 -5.04612e-02
       O -1.81543e+00 -1.88203e+00 -2.24831e-01
       H -2.15294e+00 -2.45484e+00 -9.33507e-01
       H -8.45740e-01 -2.06957e+00 -1.06397e-02
       O  7.08053e-01 -2.39438e+00  3.32829e-01
       H  8.98379e-01 -2.68008e+00  1.24255e+00
       H  1.40458e+00 -1.73082e+00  2.36764e-02
       O -6.89930e-01  2.43420e+00 -9.60929e-02
       H -9.70956e-01  3.07409e+00 -7.71427e-01
       H -1.37346e+00  1.69413e+00  8.04372e-03
18
# CELL(abcABC):   26.45886    26.45886    26.45886    90.00000    90.00000    90.00000  Step:          20  Bead:       3 positions{angstrom}  cell{angstrom}
       O  2.56528e+00 -6.85539e-01 -2.96323e-01
       H  3.03487e+00 -7.71296e-01 -1.14267e+00
       H  2.30847e+00  2.74281e-01 -1.04724e-01
       O  1.89945e+00  1.81881e+00  1.19784e-01
       H  2.26140e+00  2.31715e+00  8.72113e-01
       H  9.08017e-01  2.00389e+00  1.19297e-02
       O -2.52437e+00  6.44970e-01  3.43410e-02
       H -3.26779e+00  7.70776e-01  6.50379e-01
       H -2.26268e+00 -3.26890e-01 -7.80104e-02
       O -1.84779e+00 -1.85395e+00 -2.19386e-01
       H -2.20866e+00 -2.46157e+00 -8.86952e-01
       H -8.74791e-01 -2.03914e+00 -8.14976e-03
       O  6.61199e-01 -2.34305e+00  3.60070e-01
       H  8.35204e-01 -2.55271e+00  1.29473e+00
       H  1.37406e+00 -1.71012e+00  1.88320e-02
       O -6.35401e-01  2.39662e+00 -2.68503e-02
       H -9.28346e-01  3.09383e+00 -6.39256e-01
       H -1.33617e+00  1.66358e+00  3.86491e-02
18
# CELL(abcABC):   26.45886    26.45886    26.45886    90.00000    90.00000    90.00000  Step:          20  Bead:       4 positions{angstrom}  cell{angstrom}
       O  2.56548e+00 -7.30203e-01 -3.14170e-01
       H  3.00951e+00 -8.37076e-01 -1.17157e+00
       H  2.32831e+00  2.37433e-01 -1.28190e-01
       O  1.94286e+00  1.77787e+00  8.61133e-02
       H  2.32870e+00  2.28249e+00  8.22251e-01
       H  9.45782e-01  1.96015e+00  1.26923e-02
       O -2.50627e+00  6.73329e-01 -8.35233e-03
       H -3.30916e+00  8.29392e-01  5.14293e-01
       H -2.26622e+00 -3.08703e-01 -1.04962e-01
       O -1.88018e+00 -1.82684e+00 -2.15809e-01
       H -2.26289e+00 -2.46627e+00 -8.38774e-01
       H -9.04016e-01 -2.00917e+00 -5.36914e-03
       O  6.15857e-01 -2.29121e+00  3.90149e-01
       H  7.72714e-01 -2.42470e+00  1.34071e+00
       H  1.34303e+00 -1.69099e+00  1.61003e-02
       O -5.83512e-01  2.36049e+00  3.88968e-02
       H -8.84833e-01  3.10797e+00 -5.04261e-01
       H -1.29918e+00  1.63542e+00  6.82641e-02
18
# CELL(abcABC):   26.45886    26.45886    26.45886    90.00000    90.00000    90.00000  Step:          20  Bead:       5 positions{angstrom}  cell{angstrom}
       O  2.56904e+00 -7.72567e-01 -3.33119e-01
       H  2.99059e+00 -8.93017e-01 -1.20014e+00
       H  2.34697e+00  2.00115e-01 -1.52789e-01
       O  1.97856e+00  1.74511e+00  5.36400e-02
       H  2.38564e+00  2.25224e+00  7.76768e-01
       H  9.77326e-01  1.92349e+00  1.59600e-02
       O -2.49102e+00  6.98954e-01 -4.86471e-02
       H -3.34475e+00  8.94762e-01  3.75030e-01
       H -2.28103e+00 -2.91240e-01 -1.29835e-01
       O -1.90309e+00 -1.80256e+00 -2.32469e-01
       H -2.31098e+00 -2.48784e+00 -7.88806e-01
       H -9.29346e-01 -1.98610e+00 -1.14335e-02
       O  5.77914e-01 -2.25400e+00  4.24432e-01
       H  7.02654e-01 -2.28484e+00  1.39057e+00
       H  1.32761e+00 -1.70383e+00  1.96119e-02
       O -5.38896e-01  2.32746e+00  1.08830e-01
       H -8.35803e-01  3.13006e+00 -3.55100e-01
       H -1.27041e+00  1.61607e+00  8.50930e-02
18
# CELL(abcABC):   26.45886    26.45886    26.45886    90.00000    90.00000    90.00000  Step:          20  Bead:       6 positions{angstrom}  cell{angstrom}
       O  2.57223e+00 -8.13928e-01 -3.52269e-01
       H  2.97209e+00 -9.47122e-01 -1.22755e+00
       H  2.36556e+00  1.63067e-01 -1.77111e-01
       O  2.01194e+00  1.71386e+00  2.22886e-02
       H  2.44067e+00  2.22243e+00  7.31762e-01
       H  1.00911e+00  1.88796e+00  1.93282e-02
       O -2.48347e+00  7.24397e-01 -8.39489e-02
       H -3.37007e+00  9.56195e-01  2.33979e-01
       H -2.29737e+00 -2.72026e-01 -1.53980e-01
       O -1.92599e+00 -1.78264e+00 -2.52113e-01
       H -2.35537e+00 -2.50582e+00 -7.36768e-01
       H -9.54826e-01 -1.96402e+00 -1.75770e-02
       O  5.42849e-01 -2.21662e+00  4.63771e-01
       H  6.33915e-01 -2.14599e+00  1.42962e+00
       H  1.31093e+00 -1.71969e+00  2.73224e-02
       O -4.98623e-01  2.29791e+00  1.74609e-01
       H -7.86201e-01  3.14499e+00 -2.04939e-01
       H -1.24123e+00  1.60121e+00  1.00760e-01
18
# CELL(abcABC):   26.45886    26.45886    26.45886    90.00000    90.00000    90.00000  Step:          20  Bead:       7 positions{angstrom}  cell{angstrom}
       O  2.56989e+00 -8.57606e-01 -3.68140e-01
       H  2.94818e+00 -1.00621e+00 -1.25057e+00
       H  2.38061e+00  1.24138e-01 -2.00044e-01
       O  2.04439e+00  1.68036e+00 -7.54098e-03
       H  2.49414e+00  2.19245e+00  6.86472e-01
       H  1.04103e+00  1.85382e+00  2.09443e-02
       O -2.46689e+00  7.50478e-01 -1.02665e-01
       H -3.38320e+00  1.01586e+00  9.15325e-02
       H -2.30886e+00 -2.49486e-01 -1.78340e-01
       O -1.94813e+00 -1.75553e+00 -2.73920e-01
       H -2.40398e+00 -2.51146e+00 -6.81035e-01
       H -9.82778e-01 -1.93970e+00 -1.81904e-02
       O  5.03560e-01 -2.17041e+00  4.96981e-01
       H  5.79531e-01 -2.01639e+00  1.45582e+00
       H  1.28820e+00 -1.72046e+00  3.94647e-02
       O -4.56407e-01  2.25991e+00  2.31107e-01
       H -7.41937e-01  3.14243e+00 -6.39269e-02
       H -1.21640e+00  1.58628e+00  1.18797e-01
18
# CELL(abcABC):   26.45886    26.45886    26.45886    90.00000    90.00000    90.00000  Step:          20  Bead:       8 positions{angstrom}  cell{angstrom}
       O  2.56738e+00 -8.97504e-01 -3.83020e-01
       H  2.92607e+00 -1.06009e+00 -1.27104e+00
       H  2.39454e+00  8.80337e-02 -2.21186e-01
       O  2.07316e+00  1.65014e+00 -3.43534e-02
       H  2.54261e+00  2.16469e+00  6.44540e-01
       H  1.07109e+00  1.82267e+00  2.23840e-02
       O -2.46183e+00  7.75546e-01 -1.17459e-01
       H -3.38396e+00  1.06721e+00 -4.10557e-02
       H -2.31991e+00 -2.26956e-01 -2.00599e-01
       O -1.96929e+00 -1.73483e+00 -2.96238e-01
       H -2.44617e+00 -2.51255e+00 -6.27726e-01
       H -1.00923e+00 -1.91723e+00 -1.88586e-02
       O  4.69010e-01 -2.12628e+00  5.30504e-01
       H  5.29964e-01 -1.89830e+00  1.47446e+00
       H  1.26594e+00 -1.72215e+00  5.26351e-02
       O -4.20679e-01  2.22827e+00  2.81079e-01
       H -6.99979e-01  3.13427e+00  6.69236e-02
       H -1.19251e+00  1.57484e+00  1.35373e-01
18
# CELL(abcABC):   26.45886    26.45886    26.45886    90.00000    90.00000    90.00000  Step:          20  Bead:       9 positions{angstrom}  cell{angstrom}
       O  2.56361e+00 -9.38028e-01 -3.97796e-01
       H  2.90334e+00 -1.11401e+00 -1.29064e+00
       H  2.40840e+00  5.06667e-02 -2.42625e-01
       O  2.10084e+00  1.62022e+00 -6.07075e-02
       H  2.59026e+00  2.13688e+00  6.02127e-01
       H  1.10163e+00  1.79236e+00  2.39406e-02
       O -2.45956e+00  8.00351e-01 -1.28661e-01
       H -3.37555e+00  1.11661e+00 -1.76545e-01
       H -2.33278e+00 -2.01757e-01 -2.22411e-01
       O -1.98935e+00 -1.71559e+00 -3.20485e-01
       H -2.48751e+00 -2.50968e+00 -5.72239e-01
       H -1.03663e+00 -1.89472e+00 -1.91260e-02
       O  4.34207e-01 -2.08082e+00  5.63850e-01
       H  4.82483e-01 -1.77901e+00  1.48754e+00
       H  1.24267e+00 -1.72403e+00  7.02145e-02
       O -3.86185e-01  2.19540e+00  3.29451e-01
       H -6.58689e-01  3.11916e+00  1.99543e-01
       H -1.16974e+00  1.56723e+00  1.50547e-01
18
# CELL(abcABC):   26.45886    26.45886    26.45886    90.00000    90.00000    90.00000  Step:          20  Bead:      10 positions{angstrom}  cell{angstrom}
       O  2.56086e+00 -9.64009e-01 -4.07318e-01
       H  2.88866e+00 -1.14845e+00 -1.30287e+00
       H  2.41727e+00  2.64637e-02 -2.56412e-01
       O  2.11816e+00  1.60124e+00 -7.73135e-02
       H  2.62047e+00  2.11896e+00  5.74776e-01
       H  1.12149e+00  1.77311e+00  2.49312e-02
       O -2.46241e+00  8.16989e-01 -1.35660e-01
       H -3.36468e+00  1.14649e+00 -2.63268e-01
       H -2.34134e+00 -1.84749e-01 -2.36247e-01
       O -2.00250e+00 -1.70511e+00 -3.36587e-01
       H -2.51292e+00 -2.50566e+00 -5.35988e-01
       H -1.05454e+00 -1.88019e+00 -1.93560e-02
       O  4.12399e-01 -2.05082e+00  5.86123e-01
       H  4.52513e-01 -1.70310e+00  1.49343e+00
       H  1.22712e+00 -1.72533e+00  8.26895e-02
       O -3.65282e-01  2.17556e+00  3.59782e-01
       H -6.31915e-01  3.10643e+00  2.84777e-01
       H -1.15496e+00  1.56351e+00  1.60234e-01
18
# CELL(abcABC):   26.45886    26.45886    26.45886    90.00000    90.00000    90.00000  Step:          20  Bead:      11 positions{angstrom}  cell{angstrom}
       O  2.55501e+00 -9.98185e-01 -4.14706e-01
       H  2.86447e+00 -1.19498e+00 -1.31416e+00
       H  2.42517e+00 -5.22675e-03 -2.71085e-01
       O  2.13705e+00  1.57500e+00 -9.83843e-02
       H  2.65443e+00  2.09589e+00  5.39261e-01
       H  1.14315e+00  1.74655e+00  2.57107e-02
       O -2.45935e+00  8.37953e-01 -1.44627e-01
       H -3.33539e+00  1.19030e+00 -3.72349e-01
       H -2.34947e+00 -1.63573e-01 -2.52196e-01
       O -2.01812e+00 -1.68618e+00 -3.53090e-01
       H -2.54756e+00 -2.48869e+00 -4.89060e-01
       H -1.07599e+00 -1.85822e+00 -1.77110e-02
       O  3.83612e-01 -2.00889e+00  6.09710e-01
       H  4.15727e-01 -1.59984e+00  1.49230e+00
       H  1.20789e+00 -1.72391e+00  9.80318e-02
       O -3.38653e-01  2.14047e+00  3.96321e-01
       H -5.99049e-01  3.07705e+00  3.92647e-01
       H -1.13855e+00  1.55252e+00  1.68763e-01
18
# CELL(abcABC):   26.45886    26.45886    26.45886    90.00000    90.00000    90.00000  Step:          20  Bead:      12 positions{angstrom}  cell{angstrom}
       O  2.54880e+00 -1.03185e+00 -4.22146e-01
       H  2.84047e+00 -1.24060e+00 -1.32475e+00
       H  2.43298e+00 -3.68239e-02 -2.85629e-01
       O  2.15511e+00  1.54943e+00 -1.18732e-01
       H  2.68743e+00  2.07300e+00  5.04048e-01
       H  1.16493e+00  1.72062e+00  2.65027e-02
       O -2.46229e+00  8.60298e-01 -1.55270e-01
       H -3.29882e+00  1.23024e+00 -4.77691e-01
       H -2.35803e+00 -1.41417e-01 -2.67771e-01
       O -2.03417e+00 -1.67004e+00 -3.69221e-01
       H -2.58008e+00 -2.46907e+00 -4.42559e-01
       H -1.09758e+00 -1.83644e+00 -1.61603e-02
       O  3.56023e-01 -1.96608e+00  6.34337e-01
       H  3.80187e-01 -1.49945e+00  1.48749e+00
       H  1.18793e+00 -1.72245e+00  1.14915e-01
       O -3.14253e-01  2.10782e+00  4.31832e-01
       H -5.66321e-01  3.04357e+00  4.98555e-01
       H -1.12195e+00  1.54353e+00  1.77288e-01
18
# CELL(abcABC):   26.45886    26.45886    26.45886    90.00000    90.00000    90.00000  Step:          20  Bead:      13 positions{angstrom}  cell{angstrom}
       O  2.54166e+00 -1.06588e+00 -4.29471e-01
       H  2.81610e+00 -1.28625e+00 -1.33473e+00
       H  2.44070e+00 -6.91137e-02 -3.00332e-01
       O  2.17265e+00  1.52393e+00 -1.38796e-01
       H  2.71997e+00  2.05002e+00  4.68576e-01
       H  1.18695e+00  1.69514e+00  2.74567e-02
       O -2.46609e+00  8.83309e-01 -1.67341e-01
       H -3.25682e+00  1.26792e+00 -5.81426e-01
       H -2.36771e+00 -1.17526e-01 -2.83238e-01
       O -2.05024e+00 -1.65465e+00 -3.84232e-01
       H -2.61183e+00 -2.44709e+00 -3.96198e-01
       H -1.11951e+00 -1.81453e+00 -1.44368e-02
       O  3.28401e-01 -1.92249e+00  6.58703e-01
       H  3.46080e-01 -1.39937e+00  1.47935e+00
       H  1.16725e+00 -1.72007e+00  1.34214e-01
       O -2.90701e-01  2.07462e+00  4.66903e-01
       H -5.34401e-01  3.00570e+00  6.03929e-01
       H -1.10604e+00  1.53696e+00  1.85779e-01
18
# CELL(abcABC):   26.45886    26.45886    26.45886    90.00000    90.00000    90.00000  Step:          20  Bead:      14 positions{angstrom}  cell{angstrom}
       O  2.53402e+00 -1.09980e+00 -4.36874e-01
       H  2.79167e+00 -1.33154e+00 -1.34416e+00
       H  2.44840e+00 -1.01663e-01 -3.15070e-01
       O  2.18968e+00  1.49875e+00 -1.58392e-01
       H  2.75195e+00  2.02692e+00  4.32981e-01
       H  1.20928e+00  1.66996e+00  2.84676e-02
       O -2.47449e+00  9.08278e-01 -1.83020e-01
       H -3.20841e+00  1.30202e+00 -6.80878e-01
       H -2.37793e+00 -9.25759e-02 -2.98586e-01
       O -2.06708e+00 -1.64153e+00 -3.98337e-01
       H -2.64186e+00 -2.42252e+00 -3.50271e-01
       H -1.14173e+00 -1.79255e+00 -1.28413e-02
       O  3.01599e-01 -1.87738e+00  6.84097e-01
       H  3.12843e-01 -1.30144e+00  1.46786e+00
       H  1.14559e+00 -1.71727e+00  1.55102e-01
       O -2.68910e-01  2.04346e+00  5.01829e-01
       H -5.02347e-01  2.96355e+00  7.07825e-01
       H -1.08980e+00  1.53218e+00  1.94652e-01
18
# CELL(abcABC):   26.45886    26.45886    26.45886    90.00000    90.00000    90.00000  Step:          20  Bead:      15 positions{angstrom}  cell{angstrom}
       O  2.52342e+00 -1.13520e+00 -4.43526e-01
       H  2.76497e+00 -1.37911e+00 -1.35205e+00
       H  2.45486e+00 -1.35722e-01 -3.29940e-01
       O  2.20601e+00  1.47196e+00 -1.77893e-01
       H  2.78409e+00  2.00257e+00  3.95687e-01
       H  1.23166e+00  1.64447e+00  3.08750e-02
       O -2.47142e+00  9.36157e-01 -2.12916e-01
       H -3.16313e+00  1.33400e+00 -7.66878e-01
       H -2.38582e+00 -6.60427e-02 -3.16766e-01
       O -2.08686e+00 -1.62573e+00 -4.04033e-01
       H -2.67236e+00 -2.39503e+00 -3.07992e-01
       H -1.16496e+00 -1.76884e+00 -8.79235e-03
       O  2.73639e-01 -1.82906e+00  7.07348e-01
       H  2.81911e-01 -1.20302e+00  1.45263e+00
       H  1.12263e+00 -1.70998e+00  1.77051e-01
       O -2.46309e-01  2.00889e+00  5.40000e-01
       H -4.71615e-01  2.91547e+00  8.08967e-01
       H -1.07244e+00  1.52866e+00  2.02280e-01
18
# CELL(abcABC):   26.45886    26.45886    26.45886    90.00000    90.00000    90.00000  Step:          20  Bead:      16 positions{angstrom}  cell{angstrom}
       O  2.51225e+00 -1.17053e+00 -4.50223e-01
       H  2.73817e+00 -1.42642e+00 -1.35943e+00
       H  2.46130e+00 -1.70155e-01 -3.44884e-01
       O  2.22196e+00  1.44541e+00 -1.96942e-01
       H  2.81570e+00  1.97798e+00  3.58157e-01
       H  1.25441e+00  1.61918e+00  3.33902e-02
       O -2.46944e+00  9.65048e-01 -2.44731e-01
       H -3.11509e+00  1.36388e+00 -8.50221e-01
       H -2.39418e+00 -3.86881e-02 -3.35075e-01
       O -2.10721e+00 -1.61122e+00 -4.08948e-01
       H -2.70170e+00 -2.36593e+00 -2.66151e-01
       H -1.18839e+00 -1.74504e+00 -4.78657e-03
       O  2.46475e-01 -1.77911e+00  7.31416e-01
       H  2.51729e-01 -1.10670e+00  1.43446e+00
       H  1.09865e+00 -1.70204e+00  2.00440e-01
       O -2.25171e-01  1.97578e+00  5.78147e-01
       H -4.40880e-01  2.86368e+00  9.08483e-01
       H -1.05443e+00  1.52689e+00  2.10603e-01
18
# CELL(abcABC):   26.45886    26.45886    26.45886    90.00000    90.00000    90.00000  Step:          20  Bead:      17 positions{angstrom}  cell{angstrom}
       O  2.49965e+00 -1.20618e+00 -4.56687e-01
       H  2.71092e+00 -1.47380e+00 -1.36609e+00
       H  2.46751e+00 -2.05258e-01 -3.59953e-01
       O  2.23749e+00  1.41860e+00 -2.15695e-01
       H  2.84685e+00  1.95300e+00  3.20260e-01
       H  1.27741e+00  1.59411e+00  3.63748e-02
       O -2.46490e+00  9.94620e-01 -2.78372e-01
       H -3.06587e+00  1.39190e+00 -9.30483e-01
       H -2.40295e+00 -1.01383e-02 -3.54125e-01
       O -2.12802e+00 -1.59645e+00 -4.12164e-01
       H -2.73051e+00 -2.33566e+00 -2.25056e-01
       H -1.21205e+00 -1.72084e+00 -5.25935e-04
       O  2.19234e-01 -1.72822e+00  7.54801e-01
       H  2.22871e-01 -1.01177e+00  1.41380e+00
       H  1.07387e+00 -1.69180e+00  2.25412e-01
       O -2.04149e-01  1.94203e+00  6.16049e-01
       H -4.11039e-01  2.80850e+00  1.00561e+00
       H -1.03636e+00  1.52718e+00  2.20198e-01
18
# CELL(abcABC):   26.45886    26.45886    26.45886    90.00000    90.00000    90.00000  Step:          20  Bead:      18 positions{angstrom}  cell{angstrom}
       O  2.48641e+00 -1.24178e+00 -4.63162e-01
       H  2.68356e+00 -1.52098e+00 -1.37226e+00
       H  2.47369e+00 -2.40793e-01 -3.75115e-01
       O  2.25276e+00  1.39196e+00 -2.34039e-01
       H  2.87750e+00  1.92771e+00  2.82071e-01
       H  1.30080e+00  1.56914e+00  3.94907e-02
       O -2.46084e+00  1.02500e+00 -3.13836e-01
       H -3.01457e+00  1.41807e+00 -1.00820e+00
       H -2.41214e+00  1.92162e-02 -3.73436e-01
       O -2.14942e+00 -1.58267e+00 -4.14506e-01
       H -2.75830e+00 -2.30395e+00 -1.84456e-01
       H -1.23589e+00 -1.69651e+00  3.67878e-03
       O  1.92715e-01 -1.67555e+00  7.78792e-01
       H  1.94670e-01 -9.19046e-01  1.39059e+00
       H  1.04806e+00 -1.68065e+00  2.51660e-01
       O -1.84391e-01  1.90960e+00  6.54132e-01
       H -3.81217e-01  2.74989e+00  1.10077e+00
       H -1.01762e+00  1.52901e+00  2.30832e-01
18
# CELL(abcABC):   26.45886    26.45886    26.45886    90.00000    90.00000    90.00000  Step:          20  Bead:      19 positions{angstrom}  cell{angstrom}
       O  2.48056e+00 -1.25389e+00 -4.59151e-01
       H  2.66857e+00 -1.53805e+00 -1.36862e+00
       H  2.47105e+00 -2.52507e-01 -3.75469e-01
       O  2.25381e+00  1.38156e+00 -2.39699e-01
       H  2.88093e+00  1.92004e+00  2.70680e-01
       H  1.30315e+00  1.55825e+00  3.90515e-02
       O -2.45516e+00  1.03486e+00 -3.19540e-01
       H -2.97832e+00  1.43080e+00 -1.03596e+00
       H -2.41083e+00  2.81671e-02 -3.76323e-01
       O -2.15368e+00 -1.57087e+00 -4.14472e-01
       H -2.77018e+00 -2.28073e+00 -1.69298e-01
       H -1.24140e+00 -1.68446e+00  7.44853e-03
       O  1.84115e-01 -1.65450e+00  7.83099e-01
       H  1.89339e-01 -8.78251e-01  1.37014e+00
       H  1.04063e+00 -1.67886e+00  2.58292e-01
       O -1.79054e-01  1.88810e+00  6.61720e-01
       H -3.74547e-01  2.71574e+00  1.13232e+00
       H -1.01461e+00  1.52159e+00  2.28674e-01
18
# CELL(abcABC):   26.45886    26.45886    26.45886    90.00000    90.00000    90.00000  Step:          20  Bead:      20 positions{angstrom}  cell{angstrom}
       O  2.47412e+00 -1.26712e+00 -4.54817e-01
       H  2.65218e+00 -1.55663e+00 -1.36454e+00
       H  2.46817e+00 -2.65360e-01 -3.75862e-01
       O  2.25490e+00  1.37023e+00 -2.45843e-01
       H  2.88461e+00  1.91165e+00  2.58228e-01
       H  1.30574e+00  1.54638e+00  3.85858e-02
       O -2.44929e+00  1.04598e+00 -3.26523e-01
       H -2.93809e+00  1.44409e+00 -1.06536e+00
       H -2.40950e+00  3.81599e-02 -3.79586e-01
       O -2.15846e+00 -1.55817e+00 -4.14266e-01
       H -2.78294e+00 -2.25509e+00 -1.52854e-01
       H -1.24744e+00 -1.67128e+00  1.15863e-02
       O  1.74890e-01 -1.63095e+00  7.87977e-01
       H  1.83687e-01 -8.34346e-01  1.34712e+00
       H  1.03225e+00 -1.67671e+00  2.65895e-01
       O -1.73487e-01  1.86483e+00  6.70150e-01
       H -3.67280e-01  2.67777e+00  1.16633e+00
       H -1.01123e+00  1.51378e+00  2.26525e-01
18
# CELL(abcABC):   26.45886    26.45886    26.45886    90.00000    90.00000    90.00000  Step:          20  Bead:      21 positions{angstrom}  cell{angstrom}
       O  2.46732e+00 -1.28196e+00 -4.51533e-01
       H  2.63555e+00 -1.57677e+00 -1.36141e+00
       H  2.46676e+00 -2.80026e-01 -3.77420e-01
       O  2.25723e+00  1.35805e+00 -2.53245e-01
       H  2.89029e+00  1.90179e+00  2.44065e-01
       H  1.31028e+00  1.53300e+00  3.85531e-02
       O -2.44297e+00  1.05886e+00 -3.37025e-01
       H -2.89868e+00  1.45732e+00 -1.09697e+00
       H -2.40959e+00  5.02415e-02 -3.85216e-01
       O -2.16487e+00 -1.54565e+00 -4.13613e-01
       H -2.79622e+00 -2.22984e+00 -1.35113e-01
       H -1.25509e+00 -1.65712e+00  1.59411e-02
       O  1.64306e-01 -1.60439e+00  7.94296e-01
       H  1.76187e-01 -7.86763e-01  1.32304e+00
       H  1.02215e+00 -1.67240e+00  2.75734e-01
       O -1.66884e-01  1.83951e+00  6.82452e-01
       H -3.58130e-01  2.63801e+00  1.20296e+00
       H -1.00652e+00  1.50672e+00  2.27101e-01
18
# CELL(abcABC):   26.45886    26.45886    26.45886    90.00000    90.00000    90.00000  Step:          20  Bead:      22 positions{angstrom}  cell{angstrom}
       O  2.46019e+00 -1.29723e+00 -4.48086e-01
       H  2.61829e+00 -1.59748e+00 -1.35794e+00
       H  2.46518e+00 -2.95187e-01 -3.78957e-01
       O  2.25946e+00  1.34555e+00 -2.60767e-01
       H  2.89594e+00  1.89166e+00  2.29492e-01
       H  1.31490e+00  1.51926e+00  3.84973e-02
       O -2.43667e+00  1.07245e+00 -3.48487e-01
       H -2.85710e+00  1.47034e+00 -1.12848e+00
       H -2.40968e+00  6.28943e-02 -3.91010e-01
       O -2.17154e+00 -1.53288e+00 -4.12748e-01
       H -2.80967e+00 -2.20330e+00 -1.16961e-01
       H -1.26294e+00 -1.64247e+00  2.04657e-02
       O  1.53684e-01 -1.57634e+00  8.00922e-01
       H  1.68762e-01 -7.38604e-01  1.29733e+00
       H  1.01144e+00 -1.66778e+00  2.86201e-01
       O -1.60491e-01  1.81353e+00  6.95039e-01
       H -3.48830e-01  2.59613e+00  1.24017e+00
       H -1.00158e+00  1.49972e+00  2.27771e-01
18
# CELL(abcABC):   26.45886    26.45886    26.45886    90.00000    90.00000    90.00000  Step:          20  Bead:      23 positions{angstrom}  cell{angstrom}
       O  2.44941e+00 -1.31617e+00 -4.47899e-01
       H  2.59965e+00 -1.62393e+00 -1.35657e+00
       H  2.46438e+00 -3.14250e-01 -3.84841e-01
       O  2.26568e+00  1.33032e+00 -2.68777e-01
       H  2.90911e+00  1.87691e+00  2.11711e-01
       H  1.32530e+00  1.50516e+00  4.11463e-02
       O -2.42444e+00  1.08994e+00 -3.66463e-01
       H -2.82623e+00  1.48566e+00 -1.15745e+00
       H -2.40945e+00  7.99490e-02 -4.00731e-01
       O -2.18375e+00 -1.51963e+00 -4.09195e-01
       H -2.82523e+00 -2.18083e+00 -9.98437e-02
       H -1.27578e+00 -1.62623e+00  2.60583e-02
       O  1.39546e-01 -1.54769e+00  8.09137e-01
       H  1.57079e-01 -6.94371e-01  1.27919e+00
       H  9.96873e-01 -1.65866e+00  2.98099e-01
       O -1.49941e-01  1.79071e+00  7.11828e-01
       H -3.34177e-01  2.56056e+00  1.27656e+00
       H -9.91129e-01  1.49910e+00  2.30284e-01
18
# CELL(abcABC):   26.45886    26.45886    26.45886    90.00000    90.00000    90.00000  Step:          20  Bead:      24 positions{angstrom}  cell{angstrom}
       O  2.43848e+00 -1.33511e+00 -4.47706e-01
       H  2.58092e+00 -1.65036e+00 -1.35503e+00
       H  2.46355e+00 -3.33502e-01 -3.90748e-01
       O  2.27183e+00  1.31511e+00 -2.76722e-01
       H  2.92215e+00  1.86207e+00  1.93834e-01
       H  1.33583e+00  1.49102e+00  4.37862e-02
       O -2.41206e+00  1.10747e+00 -3.84633e-01
       H -2.79496e+00  1.50072e+00 -1.18615e+00
       H -2.40927e+00  9.72748e-02 -4.10545e-01
       O -2.19606e+00 -1.50639e+00 -4.05516e-01
       H -2.84069e+00 -2.15807e+00 -8.27430e-02
       H -1.28867e+00 -1.60990e+00  3.16747e-02
       O  1.25601e-01 -1.51849e+00  8.17431e-01
       H  1.45508e-01 -6.50485e-01  1.26047e+00
       H  9.82037e-01 -1.64927e+00  3.10285e-01
       O -1.39786e-01  1.76776e+00  7.28597e-01
       H -3.19578e-01  2.52426e+00  1.31265e+00
       H -9.80414e-01  1.49876e+00  2.33126e-01
18
# CELL(abcABC):   26.45886    26.45886    26.45886    90.00000    90.00000    90.00000  Step:          20  Bead:      25 positions{angstrom}  cell{angstrom}
       O  2.42765e+00 -1.35360e+00 -4.47226e-01
       H  2.56269e+00 -1.67576e+00 -1.35324e+00
       H  2.46288e+00 -3.52486e-01 -3.96147e-01
       O  2.27758e+00  1.30038e+00 -2.84728e-01
       H  2.93424e+00  1.84768e+00  1.76472e-01
       H  1.34594e+00  1.47662e+00  4.62232e-02
       O -2.39945e+00  1.12460e+00 -4.02419e-01
       H -2.76327e+00  1.51479e+00 -1.21440e+00
       H -2.40930e+00  1.14417e-01 -4.20163e-01
       O -2.20789e+00 -1.49303e+00 -4.01721e-01
       H -2.85554e+00 -2.13521e+00 -6.59097e-02
       H -1.30105e+00 -1.59345e+00  3.73151e-02
       O  1.12111e-01 -1.48849e+00  8.25468e-01
       H  1.34426e-01 -6.05614e-01  1.23977e+00
       H  9.67576e-01 -1.63909e+00  3.22890e-01
       O -1.30377e-01  1.74277e+00  7.45461e-01
       H -3.05694e-01  2.48624e+00  1.34774e+00
       H -9.70489e-01  1.49781e+00  2.36477e-01
18
# CELL(abcABC):   26.45886    26.45886    26.45886    90.00000    90.00000    90.00000  Step:          20  Bead:      26 positions{angstrom}  cell{angstrom}
       O  2.41670e+00 -1.37203e+00 -4.46756e-01
       H  2.54444e+00 -1.70107e+00 -1.35133e+00
       H  2.46220e+00 -3.71600e-01 -4.01567e-01
       O  2.28328e+00  1.28573e+00 -2.92643e-01
       H  2.94621e+00  1.83322e+00  1.59083e-01
       H  1.35618e+00  1.46224e+00  4.86494e-02
       O -2.38668e+00  1.14171e+00 -4.20350e-01
       H -2.73141e+00  1.52855e+00 -1.24222e+00
       H -2.40938e+00  1.31780e-01 -4.29863e-01
       O -2.21980e+00 -1.47970e+00 -3.97797e-01
       H -2.87023e+00 -2.11221e+00 -4.91796e-02
       H -1.31342e+00 -1.57697e+00  4.29698e-02
       O  9.88471e-02 -1.45805e+00  8.33525e-01
       H  1.23473e-01 -5.61386e-01  1.21868e+00
       H  9.52876e-01 -1.62862e+00  3.35729e-01
       O -1.21418e-01  1.71779e+00  7.62197e-01
       H -2.91901e-01  2.44775e+00  1.38236e+00
       H -9.60301e-01  1.49717e+00  2.40173e-01
18
# CELL(abcABC):   26.45886    26.45886    26.45886    90.00000    90.00000    90.00000  Step:          20  Bead:      27 positions{angstrom}  cell{angstrom}
       O  2.40788e+00 -1.38720e+00 -4.44821e-01
       H  2.52820e+00 -1.72369e+00 -1.34765e+00
       H  2.46205e+00 -3.87456e-01 -4.06393e-01
       O  2.28747e+00  1.27415e+00 -3.00069e-01
       H  2.95503e+00  1.82231e+00  1.43855e-01
       H  1.36421e+00  1.44946e+00  5.00946e-02
       O -2.37616e+00  1.15493e+00 -4.35761e-01
       H -2.69767e+00  1.53777e+00 -1.26905e+00
       H -2.40987e+00  1.45245e-01 -4.38265e-01
       O -2.22864e+00 -1.46854e+00 -3.94426e-01
       H -2.88091e+00 -2.09211e+00 -3.30334e-02
       H -1.32248e+00 -1.56094e+00  4.82757e-02
       O  8.77754e-02 -1.42444e+00  8.40047e-01
       H  1.13575e-01 -5.12410e-01  1.19093e+00
       H  9.40860e-01 -1.61542e+00  3.48761e-01
       O -1.15864e-01  1.68953e+00  7.76157e-01
       H -2.82895e-01  2.40003e+00  1.42000e+00
       H -9.54678e-01  1.49485e+00  2.42856e-01
18
# CELL(abcABC):   26.45886    26.45886    26.45886    90.00000    90.00000    90.00000  Step:          20  Bead:      28 positions{angstrom}  cell{angstrom}
       O  2.39900e+00 -1.40228e+00 -4.42912e-01
       H  2.51199e+00 -1.74617e+00 -1.34385e+00
       H  2.46188e+00 -4.03407e-01 -4.11225e-01
       O  2.29157e+00  1.26269e+00 -3.07413e-01
       H  2.96374e+00  1.81139e+00  1.28654e-01
       H  1.37234e+00  1.43674e+00  5.15255e-02
       O -2.36551e+00  1.16818e+00 -4.51388e-01
       H -2.66382e+00  1.54660e+00 -1.29524e+00
       H -2.41039e+00  1.58869e-01 -4.46739e-01
       O -2.23750e+00 -1.45744e+00 -3.90925e-01
       H -2.89141e+00 -2.07192e+00 -1.70260e-02
       H -1.33147e+00 -1.54491e+00  5.36073e-02
       O  7.69280e-02 -1.39045e+00  8.46521e-01
       H  1.03834e-01 -4.64495e-01  1.16293e+00
       H  9.28602e-01 -1.60192e+00  3.62009e-01
       O -1.10807e-01  1.66168e+00  7.90041e-01
       H -2.74030e-01  2.35173e+00  1.45684e+00
       H -9.48830e-01  1.49292e+00  2.45968e-01
18
# CELL(abcABC):   26.45886    26.45886    26.45886    90.00000    90.00000    90.00000  Step:          20  Bead:      29 positions{angstrom}  cell{angstrom}
       O  2.38967e+00 -1.41758e+00 -4.40862e-01
       H  2.49544e+00 -1.76893e+00 -1.33977e+00
       H  2.46155e+00 -4.19704e-01 -4.16151e-01